# LAMMPS data file written by OVITO
18000 atoms
3 atom types
0.0 27.973961 xlo xhi
0.0 88.4614411 ylo yhi
0.0 106.1537323 zlo zhi

Atoms # full

1 1 2 0.0 0.0 72.5383835 5.3076849
2 1 2 0.0 0.0 74.3076096 10.6153698
3 1 2 0.0 0.0 76.0768356 15.9230548
4 1 2 0.0 0.0 77.8460694 21.2307396
5 1 2 0.0 0.0 79.6152954 26.5384255
6 1 2 0.0 0.0 81.3845215 31.8461094
7 1 2 0.0 0.0 83.1537552 37.1537933
8 1 2 0.0 0.0 84.9229814 42.4614792
9 1 2 0.0 0.0 86.692215 47.7691651
10 1 2 0.0 0.0 0.0 53.0768509
11 1 2 0.0 0.0 1.7692288 5.3076849
12 1 2 0.0 0.0 3.5384577 10.6153698
13 1 2 0.0 0.0 5.3076863 15.9230548
14 1 2 0.0 0.0 7.0769153 21.2307396
15 1 2 0.0 0.0 8.8461438 26.5384255
16 1 2 0.0 0.0 10.6153727 31.8461094
17 1 2 0.0 0.0 12.3846016 37.1537933
18 1 2 0.0 0.0 14.1538305 42.4614792
19 1 2 0.0 0.0 15.9230596 47.7691651
20 1 2 0.0 0.0 17.6922875 53.0768509
21 1 2 0.0 0.0 19.4615174 5.3076849
22 1 2 0.0 0.0 21.2307453 10.6153698
23 1 2 0.0 0.0 22.9999752 15.9230548
24 1 2 0.0 0.0 24.7692032 21.2307396
25 1 2 0.0 0.0 26.5384312 26.5384255
26 1 2 0.0 0.0 28.3076611 31.8461094
27 1 2 0.0 0.0 30.076889 37.1537933
28 1 2 0.0 0.0 31.846119 42.4614792
29 1 2 0.0 0.0 33.6153488 47.7691651
30 1 2 0.0 0.0 35.3845749 53.0768509
31 1 2 0.0 0.0 37.1538048 5.3076849
32 1 2 0.0 0.0 38.9230348 10.6153698
33 1 2 0.0 0.0 40.6922608 15.9230548
34 1 2 0.0 0.0 42.4614907 21.2307396
35 1 2 0.0 0.0 44.2307205 26.5384255
36 1 2 0.0 0.0 45.9999504 31.8461094
37 1 2 0.0 0.0 47.7691765 37.1537933
38 1 2 0.0 0.0 49.5384064 42.4614792
39 1 2 0.0 0.0 51.3076363 47.7691651
40 1 2 0.0 0.0 53.0768623 53.0768509
41 1 2 0.0 0.0 54.8460922 5.3076849
42 1 2 0.0 0.0 56.6153221 10.6153698
43 1 2 0.0 0.0 58.384552 15.9230548
44 1 2 0.0 0.0 60.1537781 21.2307396
45 1 2 0.0 0.0 61.923008 26.5384255
46 1 2 0.0 0.0 63.6922379 31.8461094
47 1 2 0.0 0.0 65.461464 37.1537933
48 1 2 0.0 0.0 67.2306976 42.4614792
49 1 2 0.0 0.0 68.9999238 47.7691651
50 1 2 0.0 0.0 70.7691498 53.0768509
51 1 2 0.0 5.5947919 72.5383835 5.3076849
52 1 2 0.0 5.5947919 74.3076096 10.6153698
53 1 2 0.0 5.5947919 76.0768356 15.9230548
54 1 2 0.0 5.5947919 77.8460694 21.2307396
55 1 2 0.0 5.5947919 79.6152954 26.5384255
56 1 2 0.0 5.5947919 81.3845215 31.8461094
57 1 2 0.0 5.5947919 83.1537552 37.1537933
58 1 2 0.0 5.5947919 84.9229814 42.4614792
59 1 2 0.0 5.5947919 86.692215 47.7691651
60 1 2 0.0 5.5947919 0.0 53.0768509
61 1 2 0.0 5.5947919 1.7692288 5.3076849
62 1 2 0.0 5.5947919 3.5384577 10.6153698
63 1 2 0.0 5.5947919 5.3076863 15.9230548
64 1 2 0.0 5.5947919 7.0769153 21.2307396
65 1 2 0.0 5.5947919 8.8461438 26.5384255
66 1 2 0.0 5.5947919 10.6153727 31.8461094
67 1 2 0.0 5.5947919 12.3846016 37.1537933
68 1 2 0.0 5.5947919 14.1538305 42.4614792
69 1 2 0.0 5.5947919 15.9230596 47.7691651
70 1 2 0.0 5.5947919 17.6922875 53.0768509
71 1 2 0.0 5.5947919 19.4615174 5.3076849
72 1 2 0.0 5.5947919 21.2307453 10.6153698
73 1 2 0.0 5.5947919 22.9999752 15.9230548
74 1 2 0.0 5.5947919 24.7692032 21.2307396
75 1 2 0.0 5.5947919 26.5384312 26.5384255
76 1 2 0.0 5.5947919 28.3076611 31.8461094
77 1 2 0.0 5.5947919 30.076889 37.1537933
78 1 2 0.0 5.5947919 31.846119 42.4614792
79 1 2 0.0 5.5947919 33.6153488 47.7691651
80 1 2 0.0 5.5947919 35.3845749 53.0768509
81 1 2 0.0 5.5947919 37.1538048 5.3076849
82 1 2 0.0 5.5947919 38.9230348 10.6153698
83 1 2 0.0 5.5947919 40.6922608 15.9230548
84 1 2 0.0 5.5947919 42.4614907 21.2307396
85 1 2 0.0 5.5947919 44.2307205 26.5384255
86 1 2 0.0 5.5947919 45.9999504 31.8461094
87 1 2 0.0 5.5947919 47.7691765 37.1537933
88 1 2 0.0 5.5947919 49.5384064 42.4614792
89 1 2 0.0 5.5947919 51.3076363 47.7691651
90 1 2 0.0 5.5947919 53.0768623 53.0768509
91 1 2 0.0 5.5947919 54.8460922 5.3076849
92 1 2 0.0 5.5947919 56.6153221 10.6153698
93 1 2 0.0 5.5947919 58.384552 15.9230548
94 1 2 0.0 5.5947919 60.1537781 21.2307396
95 1 2 0.0 5.5947919 61.923008 26.5384255
96 1 2 0.0 5.5947919 63.6922379 31.8461094
97 1 2 0.0 5.5947919 65.461464 37.1537933
98 1 2 0.0 5.5947919 67.2306976 42.4614792
99 1 2 0.0 5.5947919 68.9999238 47.7691651
100 1 2 0.0 5.5947919 70.7691498 53.0768509
101 1 2 0.0 11.1895838 72.5383835 5.3076849
102 1 2 0.0 11.1895838 74.3076096 10.6153698
103 1 2 0.0 11.1895838 76.0768356 15.9230548
104 1 2 0.0 11.1895838 77.8460694 21.2307396
105 1 2 0.0 11.1895838 79.6152954 26.5384255
106 1 2 0.0 11.1895838 81.3845215 31.8461094
107 1 2 0.0 11.1895838 83.1537552 37.1537933
108 1 2 0.0 11.1895838 84.9229814 42.4614792
109 1 2 0.0 11.1895838 86.692215 47.7691651
110 1 2 0.0 11.1895838 0.0 53.0768509
111 1 2 0.0 11.1895838 1.7692288 5.3076849
112 1 2 0.0 11.1895838 3.5384577 10.6153698
113 1 2 0.0 11.1895838 5.3076863 15.9230548
114 1 2 0.0 11.1895838 7.0769153 21.2307396
115 1 2 0.0 11.1895838 8.8461438 26.5384255
116 1 2 0.0 11.1895838 10.6153727 31.8461094
117 1 2 0.0 11.1895838 12.3846016 37.1537933
118 1 2 0.0 11.1895838 14.1538305 42.4614792
119 1 2 0.0 11.1895838 15.9230596 47.7691651
120 1 2 0.0 11.1895838 17.6922875 53.0768509
121 1 2 0.0 11.1895838 19.4615174 5.3076849
122 1 2 0.0 11.1895838 21.2307453 10.6153698
123 1 2 0.0 11.1895838 22.9999752 15.9230548
124 1 2 0.0 11.1895838 24.7692032 21.2307396
125 1 2 0.0 11.1895838 26.5384312 26.5384255
126 1 2 0.0 11.1895838 28.3076611 31.8461094
127 1 2 0.0 11.1895838 30.076889 37.1537933
128 1 2 0.0 11.1895838 31.846119 42.4614792
129 1 2 0.0 11.1895838 33.6153488 47.7691651
130 1 2 0.0 11.1895838 35.3845749 53.0768509
131 1 2 0.0 11.1895838 37.1538048 5.3076849
132 1 2 0.0 11.1895838 38.9230348 10.6153698
133 1 2 0.0 11.1895838 40.6922608 15.9230548
134 1 2 0.0 11.1895838 42.4614907 21.2307396
135 1 2 0.0 11.1895838 44.2307205 26.5384255
136 1 2 0.0 11.1895838 45.9999504 31.8461094
137 1 2 0.0 11.1895838 47.7691765 37.1537933
138 1 2 0.0 11.1895838 49.5384064 42.4614792
139 1 2 0.0 11.1895838 51.3076363 47.7691651
140 1 2 0.0 11.1895838 53.0768623 53.0768509
141 1 2 0.0 11.1895838 54.8460922 5.3076849
142 1 2 0.0 11.1895838 56.6153221 10.6153698
143 1 2 0.0 11.1895838 58.384552 15.9230548
144 1 2 0.0 11.1895838 60.1537781 21.2307396
145 1 2 0.0 11.1895838 61.923008 26.5384255
146 1 2 0.0 11.1895838 63.6922379 31.8461094
147 1 2 0.0 11.1895838 65.461464 37.1537933
148 1 2 0.0 11.1895838 67.2306976 42.4614792
149 1 2 0.0 11.1895838 68.9999238 47.7691651
150 1 2 0.0 11.1895838 70.7691498 53.0768509
151 1 2 0.0 16.7843762 72.5383835 5.3076849
152 1 2 0.0 16.7843762 74.3076096 10.6153698
153 1 2 0.0 16.7843762 76.0768356 15.9230548
154 1 2 0.0 16.7843762 77.8460694 21.2307396
155 1 2 0.0 16.7843762 79.6152954 26.5384255
156 1 2 0.0 16.7843762 81.3845215 31.8461094
157 1 2 0.0 16.7843762 83.1537552 37.1537933
158 1 2 0.0 16.7843762 84.9229814 42.4614792
159 1 2 0.0 16.7843762 86.692215 47.7691651
160 1 2 0.0 16.7843762 0.0 53.0768509
161 1 2 0.0 16.7843762 1.7692288 5.3076849
162 1 2 0.0 16.7843762 3.5384577 10.6153698
163 1 2 0.0 16.7843762 5.3076863 15.9230548
164 1 2 0.0 16.7843762 7.0769153 21.2307396
165 1 2 0.0 16.7843762 8.8461438 26.5384255
166 1 2 0.0 16.7843762 10.6153727 31.8461094
167 1 2 0.0 16.7843762 12.3846016 37.1537933
168 1 2 0.0 16.7843762 14.1538305 42.4614792
169 1 2 0.0 16.7843762 15.9230596 47.7691651
170 1 2 0.0 16.7843762 17.6922875 53.0768509
171 1 2 0.0 16.7843762 19.4615174 5.3076849
172 1 2 0.0 16.7843762 21.2307453 10.6153698
173 1 2 0.0 16.7843762 22.9999752 15.9230548
174 1 2 0.0 16.7843762 24.7692032 21.2307396
175 1 2 0.0 16.7843762 26.5384312 26.5384255
176 1 2 0.0 16.7843762 28.3076611 31.8461094
177 1 2 0.0 16.7843762 30.076889 37.1537933
178 1 2 0.0 16.7843762 31.846119 42.4614792
179 1 2 0.0 16.7843762 33.6153488 47.7691651
180 1 2 0.0 16.7843762 35.3845749 53.0768509
181 1 2 0.0 16.7843762 37.1538048 5.3076849
182 1 2 0.0 16.7843762 38.9230348 10.6153698
183 1 2 0.0 16.7843762 40.6922608 15.9230548
184 1 2 0.0 16.7843762 42.4614907 21.2307396
185 1 2 0.0 16.7843762 44.2307205 26.5384255
186 1 2 0.0 16.7843762 45.9999504 31.8461094
187 1 2 0.0 16.7843762 47.7691765 37.1537933
188 1 2 0.0 16.7843762 49.5384064 42.4614792
189 1 2 0.0 16.7843762 51.3076363 47.7691651
190 1 2 0.0 16.7843762 53.0768623 53.0768509
191 1 2 0.0 16.7843762 54.8460922 5.3076849
192 1 2 0.0 16.7843762 56.6153221 10.6153698
193 1 2 0.0 16.7843762 58.384552 15.9230548
194 1 2 0.0 16.7843762 60.1537781 21.2307396
195 1 2 0.0 16.7843762 61.923008 26.5384255
196 1 2 0.0 16.7843762 63.6922379 31.8461094
197 1 2 0.0 16.7843762 65.461464 37.1537933
198 1 2 0.0 16.7843762 67.2306976 42.4614792
199 1 2 0.0 16.7843762 68.9999238 47.7691651
200 1 2 0.0 16.7843762 70.7691498 53.0768509
201 1 2 0.0 22.3791676 72.5383835 5.3076849
202 1 2 0.0 22.3791676 74.3076096 10.6153698
203 1 2 0.0 22.3791676 76.0768356 15.9230548
204 1 2 0.0 22.3791676 77.8460694 21.2307396
205 1 2 0.0 22.3791676 79.6152954 26.5384255
206 1 2 0.0 22.3791676 81.3845215 31.8461094
207 1 2 0.0 22.3791676 83.1537552 37.1537933
208 1 2 0.0 22.3791676 84.9229814 42.4614792
209 1 2 0.0 22.3791676 86.692215 47.7691651
210 1 2 0.0 22.3791676 0.0 53.0768509
211 1 2 0.0 22.3791676 1.7692288 5.3076849
212 1 2 0.0 22.3791676 3.5384577 10.6153698
213 1 2 0.0 22.3791676 5.3076863 15.9230548
214 1 2 0.0 22.3791676 7.0769153 21.2307396
215 1 2 0.0 22.3791676 8.8461438 26.5384255
216 1 2 0.0 22.3791676 10.6153727 31.8461094
217 1 2 0.0 22.3791676 12.3846016 37.1537933
218 1 2 0.0 22.3791676 14.1538305 42.4614792
219 1 2 0.0 22.3791676 15.9230596 47.7691651
220 1 2 0.0 22.3791676 17.6922875 53.0768509
221 1 2 0.0 22.3791676 19.4615174 5.3076849
222 1 2 0.0 22.3791676 21.2307453 10.6153698
223 1 2 0.0 22.3791676 22.9999752 15.9230548
224 1 2 0.0 22.3791676 24.7692032 21.2307396
225 1 2 0.0 22.3791676 26.5384312 26.5384255
226 1 2 0.0 22.3791676 28.3076611 31.8461094
227 1 2 0.0 22.3791676 30.076889 37.1537933
228 1 2 0.0 22.3791676 31.846119 42.4614792
229 1 2 0.0 22.3791676 33.6153488 47.7691651
230 1 2 0.0 22.3791676 35.3845749 53.0768509
231 1 2 0.0 22.3791676 37.1538048 5.3076849
232 1 2 0.0 22.3791676 38.9230348 10.6153698
233 1 2 0.0 22.3791676 40.6922608 15.9230548
234 1 2 0.0 22.3791676 42.4614907 21.2307396
235 1 2 0.0 22.3791676 44.2307205 26.5384255
236 1 2 0.0 22.3791676 45.9999504 31.8461094
237 1 2 0.0 22.3791676 47.7691765 37.1537933
238 1 2 0.0 22.3791676 49.5384064 42.4614792
239 1 2 0.0 22.3791676 51.3076363 47.7691651
240 1 2 0.0 22.3791676 53.0768623 53.0768509
241 1 2 0.0 22.3791676 54.8460922 5.3076849
242 1 2 0.0 22.3791676 56.6153221 10.6153698
243 1 2 0.0 22.3791676 58.384552 15.9230548
244 1 2 0.0 22.3791676 60.1537781 21.2307396
245 1 2 0.0 22.3791676 61.923008 26.5384255
246 1 2 0.0 22.3791676 63.6922379 31.8461094
247 1 2 0.0 22.3791676 65.461464 37.1537933
248 1 2 0.0 22.3791676 67.2306976 42.4614792
249 1 2 0.0 22.3791676 68.9999238 47.7691651
250 1 2 0.0 22.3791676 70.7691498 53.0768509
251 1 2 0.0 0.0 74.3076096 1.7692638
252 1 2 0.0 0.0 76.0768356 7.0769486
253 1 2 0.0 0.0 77.8460694 12.384634
254 1 2 0.0 0.0 79.6152954 17.692318
255 1 2 0.0 0.0 81.3845215 23.0000038
256 1 2 0.0 0.0 83.1537552 28.3076897
257 1 2 0.0 0.0 84.9229814 33.6153755
258 1 2 0.0 0.0 86.692215 38.9230576
259 1 2 0.0 0.0 0.0 44.2307434
260 1 2 0.0 0.0 1.7692288 49.5384293
261 1 2 0.0 0.0 3.5384577 1.7692638
262 1 2 0.0 0.0 5.3076863 7.0769486
263 1 2 0.0 0.0 7.0769153 12.384634
264 1 2 0.0 0.0 8.8461438 17.692318
265 1 2 0.0 0.0 10.6153727 23.0000038
266 1 2 0.0 0.0 12.3846016 28.3076897
267 1 2 0.0 0.0 14.1538305 33.6153755
268 1 2 0.0 0.0 15.9230596 38.9230576
269 1 2 0.0 0.0 17.6922875 44.2307434
270 1 2 0.0 0.0 19.4615174 49.5384293
271 1 2 0.0 0.0 21.2307453 1.7692638
272 1 2 0.0 0.0 22.9999752 7.0769486
273 1 2 0.0 0.0 24.7692032 12.384634
274 1 2 0.0 0.0 26.5384312 17.692318
275 1 2 0.0 0.0 28.3076611 23.0000038
276 1 2 0.0 0.0 30.076889 28.3076897
277 1 2 0.0 0.0 31.846119 33.6153755
278 1 2 0.0 0.0 33.6153488 38.9230576
279 1 2 0.0 0.0 35.3845749 44.2307434
280 1 2 0.0 0.0 37.1538048 49.5384293
281 1 2 0.0 0.0 38.9230348 1.7692638
282 1 2 0.0 0.0 40.6922608 7.0769486
283 1 2 0.0 0.0 42.4614907 12.384634
284 1 2 0.0 0.0 44.2307205 17.692318
285 1 2 0.0 0.0 45.9999504 23.0000038
286 1 2 0.0 0.0 47.7691765 28.3076897
287 1 2 0.0 0.0 49.5384064 33.6153755
288 1 2 0.0 0.0 51.3076363 38.9230576
289 1 2 0.0 0.0 53.0768623 44.2307434
290 1 2 0.0 0.0 54.8460922 49.5384293
291 1 2 0.0 0.0 56.6153221 1.7692638
292 1 2 0.0 0.0 58.384552 7.0769486
293 1 2 0.0 0.0 60.1537781 12.384634
294 1 2 0.0 0.0 61.923008 17.692318
295 1 2 0.0 0.0 63.6922379 23.0000038
296 1 2 0.0 0.0 65.461464 28.3076897
297 1 2 0.0 0.0 67.2306976 33.6153755
298 1 2 0.0 0.0 68.9999238 38.9230576
299 1 2 0.0 0.0 70.7691498 44.2307434
300 1 2 0.0 0.0 72.5383835 49.5384293
301 1 2 0.0 5.5947919 74.3076096 1.7692638
302 1 2 0.0 5.5947919 76.0768356 7.0769486
303 1 2 0.0 5.5947919 77.8460694 12.384634
304 1 2 0.0 5.5947919 79.6152954 17.692318
305 1 2 0.0 5.5947919 81.3845215 23.0000038
306 1 2 0.0 5.5947919 83.1537552 28.3076897
307 1 2 0.0 5.5947919 84.9229814 33.6153755
308 1 2 0.0 5.5947919 86.692215 38.9230576
309 1 2 0.0 5.5947919 0.0 44.2307434
310 1 2 0.0 5.5947919 1.7692288 49.5384293
311 1 2 0.0 5.5947919 3.5384577 1.7692638
312 1 2 0.0 5.5947919 5.3076863 7.0769486
313 1 2 0.0 5.5947919 7.0769153 12.384634
314 1 2 0.0 5.5947919 8.8461438 17.692318
315 1 2 0.0 5.5947919 10.6153727 23.0000038
316 1 2 0.0 5.5947919 12.3846016 28.3076897
317 1 2 0.0 5.5947919 14.1538305 33.6153755
318 1 2 0.0 5.5947919 15.9230596 38.9230576
319 1 2 0.0 5.5947919 17.6922875 44.2307434
320 1 2 0.0 5.5947919 19.4615174 49.5384293
321 1 2 0.0 5.5947919 21.2307453 1.7692638
322 1 2 0.0 5.5947919 22.9999752 7.0769486
323 1 2 0.0 5.5947919 24.7692032 12.384634
324 1 2 0.0 5.5947919 26.5384312 17.692318
325 1 2 0.0 5.5947919 28.3076611 23.0000038
326 1 2 0.0 5.5947919 30.076889 28.3076897
327 1 2 0.0 5.5947919 31.846119 33.6153755
328 1 2 0.0 5.5947919 33.6153488 38.9230576
329 1 2 0.0 5.5947919 35.3845749 44.2307434
330 1 2 0.0 5.5947919 37.1538048 49.5384293
331 1 2 0.0 5.5947919 38.9230348 1.7692638
332 1 2 0.0 5.5947919 40.6922608 7.0769486
333 1 2 0.0 5.5947919 42.4614907 12.384634
334 1 2 0.0 5.5947919 44.2307205 17.692318
335 1 2 0.0 5.5947919 45.9999504 23.0000038
336 1 2 0.0 5.5947919 47.7691765 28.3076897
337 1 2 0.0 5.5947919 49.5384064 33.6153755
338 1 2 0.0 5.5947919 51.3076363 38.9230576
339 1 2 0.0 5.5947919 53.0768623 44.2307434
340 1 2 0.0 5.5947919 54.8460922 49.5384293
341 1 2 0.0 5.5947919 56.6153221 1.7692638
342 1 2 0.0 5.5947919 58.384552 7.0769486
343 1 2 0.0 5.5947919 60.1537781 12.384634
344 1 2 0.0 5.5947919 61.923008 17.692318
345 1 2 0.0 5.5947919 63.6922379 23.0000038
346 1 2 0.0 5.5947919 65.461464 28.3076897
347 1 2 0.0 5.5947919 67.2306976 33.6153755
348 1 2 0.0 5.5947919 68.9999238 38.9230576
349 1 2 0.0 5.5947919 70.7691498 44.2307434
350 1 2 0.0 5.5947919 72.5383835 49.5384293
351 1 2 0.0 11.1895838 74.3076096 1.7692638
352 1 2 0.0 11.1895838 76.0768356 7.0769486
353 1 2 0.0 11.1895838 77.8460694 12.384634
354 1 2 0.0 11.1895838 79.6152954 17.692318
355 1 2 0.0 11.1895838 81.3845215 23.0000038
356 1 2 0.0 11.1895838 83.1537552 28.3076897
357 1 2 0.0 11.1895838 84.9229814 33.6153755
358 1 2 0.0 11.1895838 86.692215 38.9230576
359 1 2 0.0 11.1895838 0.0 44.2307434
360 1 2 0.0 11.1895838 1.7692288 49.5384293
361 1 2 0.0 11.1895838 3.5384577 1.7692638
362 1 2 0.0 11.1895838 5.3076863 7.0769486
363 1 2 0.0 11.1895838 7.0769153 12.384634
364 1 2 0.0 11.1895838 8.8461438 17.692318
365 1 2 0.0 11.1895838 10.6153727 23.0000038
366 1 2 0.0 11.1895838 12.3846016 28.3076897
367 1 2 0.0 11.1895838 14.1538305 33.6153755
368 1 2 0.0 11.1895838 15.9230596 38.9230576
369 1 2 0.0 11.1895838 17.6922875 44.2307434
370 1 2 0.0 11.1895838 19.4615174 49.5384293
371 1 2 0.0 11.1895838 21.2307453 1.7692638
372 1 2 0.0 11.1895838 22.9999752 7.0769486
373 1 2 0.0 11.1895838 24.7692032 12.384634
374 1 2 0.0 11.1895838 26.5384312 17.692318
375 1 2 0.0 11.1895838 28.3076611 23.0000038
376 1 2 0.0 11.1895838 30.076889 28.3076897
377 1 2 0.0 11.1895838 31.846119 33.6153755
378 1 2 0.0 11.1895838 33.6153488 38.9230576
379 1 2 0.0 11.1895838 35.3845749 44.2307434
380 1 2 0.0 11.1895838 37.1538048 49.5384293
381 1 2 0.0 11.1895838 38.9230348 1.7692638
382 1 2 0.0 11.1895838 40.6922608 7.0769486
383 1 2 0.0 11.1895838 42.4614907 12.384634
384 1 2 0.0 11.1895838 44.2307205 17.692318
385 1 2 0.0 11.1895838 45.9999504 23.0000038
386 1 2 0.0 11.1895838 47.7691765 28.3076897
387 1 2 0.0 11.1895838 49.5384064 33.6153755
388 1 2 0.0 11.1895838 51.3076363 38.9230576
389 1 2 0.0 11.1895838 53.0768623 44.2307434
390 1 2 0.0 11.1895838 54.8460922 49.5384293
391 1 2 0.0 11.1895838 56.6153221 1.7692638
392 1 2 0.0 11.1895838 58.384552 7.0769486
393 1 2 0.0 11.1895838 60.1537781 12.384634
394 1 2 0.0 11.1895838 61.923008 17.692318
395 1 2 0.0 11.1895838 63.6922379 23.0000038
396 1 2 0.0 11.1895838 65.461464 28.3076897
397 1 2 0.0 11.1895838 67.2306976 33.6153755
398 1 2 0.0 11.1895838 68.9999238 38.9230576
399 1 2 0.0 11.1895838 70.7691498 44.2307434
400 1 2 0.0 11.1895838 72.5383835 49.5384293
401 1 2 0.0 16.7843762 74.3076096 1.7692638
402 1 2 0.0 16.7843762 76.0768356 7.0769486
403 1 2 0.0 16.7843762 77.8460694 12.384634
404 1 2 0.0 16.7843762 79.6152954 17.692318
405 1 2 0.0 16.7843762 81.3845215 23.0000038
406 1 2 0.0 16.7843762 83.1537552 28.3076897
407 1 2 0.0 16.7843762 84.9229814 33.6153755
408 1 2 0.0 16.7843762 86.692215 38.9230576
409 1 2 0.0 16.7843762 0.0 44.2307434
410 1 2 0.0 16.7843762 1.7692288 49.5384293
411 1 2 0.0 16.7843762 3.5384577 1.7692638
412 1 2 0.0 16.7843762 5.3076863 7.0769486
413 1 2 0.0 16.7843762 7.0769153 12.384634
414 1 2 0.0 16.7843762 8.8461438 17.692318
415 1 2 0.0 16.7843762 10.6153727 23.0000038
416 1 2 0.0 16.7843762 12.3846016 28.3076897
417 1 2 0.0 16.7843762 14.1538305 33.6153755
418 1 2 0.0 16.7843762 15.9230596 38.9230576
419 1 2 0.0 16.7843762 17.6922875 44.2307434
420 1 2 0.0 16.7843762 19.4615174 49.5384293
421 1 2 0.0 16.7843762 21.2307453 1.7692638
422 1 2 0.0 16.7843762 22.9999752 7.0769486
423 1 2 0.0 16.7843762 24.7692032 12.384634
424 1 2 0.0 16.7843762 26.5384312 17.692318
425 1 2 0.0 16.7843762 28.3076611 23.0000038
426 1 2 0.0 16.7843762 30.076889 28.3076897
427 1 2 0.0 16.7843762 31.846119 33.6153755
428 1 2 0.0 16.7843762 33.6153488 38.9230576
429 1 2 0.0 16.7843762 35.3845749 44.2307434
430 1 2 0.0 16.7843762 37.1538048 49.5384293
431 1 2 0.0 16.7843762 38.9230348 1.7692638
432 1 2 0.0 16.7843762 40.6922608 7.0769486
433 1 2 0.0 16.7843762 42.4614907 12.384634
434 1 2 0.0 16.7843762 44.2307205 17.692318
435 1 2 0.0 16.7843762 45.9999504 23.0000038
436 1 2 0.0 16.7843762 47.7691765 28.3076897
437 1 2 0.0 16.7843762 49.5384064 33.6153755
438 1 2 0.0 16.7843762 51.3076363 38.9230576
439 1 2 0.0 16.7843762 53.0768623 44.2307434
440 1 2 0.0 16.7843762 54.8460922 49.5384293
441 1 2 0.0 16.7843762 56.6153221 1.7692638
442 1 2 0.0 16.7843762 58.384552 7.0769486
443 1 2 0.0 16.7843762 60.1537781 12.384634
444 1 2 0.0 16.7843762 61.923008 17.692318
445 1 2 0.0 16.7843762 63.6922379 23.0000038
446 1 2 0.0 16.7843762 65.461464 28.3076897
447 1 2 0.0 16.7843762 67.2306976 33.6153755
448 1 2 0.0 16.7843762 68.9999238 38.9230576
449 1 2 0.0 16.7843762 70.7691498 44.2307434
450 1 2 0.0 16.7843762 72.5383835 49.5384293
451 1 2 0.0 22.3791676 74.3076096 1.7692638
452 1 2 0.0 22.3791676 76.0768356 7.0769486
453 1 2 0.0 22.3791676 77.8460694 12.384634
454 1 2 0.0 22.3791676 79.6152954 17.692318
455 1 2 0.0 22.3791676 81.3845215 23.0000038
456 1 2 0.0 22.3791676 83.1537552 28.3076897
457 1 2 0.0 22.3791676 84.9229814 33.6153755
458 1 2 0.0 22.3791676 86.692215 38.9230576
459 1 2 0.0 22.3791676 0.0 44.2307434
460 1 2 0.0 22.3791676 1.7692288 49.5384293
461 1 2 0.0 22.3791676 3.5384577 1.7692638
462 1 2 0.0 22.3791676 5.3076863 7.0769486
463 1 2 0.0 22.3791676 7.0769153 12.384634
464 1 2 0.0 22.3791676 8.8461438 17.692318
465 1 2 0.0 22.3791676 10.6153727 23.0000038
466 1 2 0.0 22.3791676 12.3846016 28.3076897
467 1 2 0.0 22.3791676 14.1538305 33.6153755
468 1 2 0.0 22.3791676 15.9230596 38.9230576
469 1 2 0.0 22.3791676 17.6922875 44.2307434
470 1 2 0.0 22.3791676 19.4615174 49.5384293
471 1 2 0.0 22.3791676 21.2307453 1.7692638
472 1 2 0.0 22.3791676 22.9999752 7.0769486
473 1 2 0.0 22.3791676 24.7692032 12.384634
474 1 2 0.0 22.3791676 26.5384312 17.692318
475 1 2 0.0 22.3791676 28.3076611 23.0000038
476 1 2 0.0 22.3791676 30.076889 28.3076897
477 1 2 0.0 22.3791676 31.846119 33.6153755
478 1 2 0.0 22.3791676 33.6153488 38.9230576
479 1 2 0.0 22.3791676 35.3845749 44.2307434
480 1 2 0.0 22.3791676 37.1538048 49.5384293
481 1 2 0.0 22.3791676 38.9230348 1.7692638
482 1 2 0.0 22.3791676 40.6922608 7.0769486
483 1 2 0.0 22.3791676 42.4614907 12.384634
484 1 2 0.0 22.3791676 44.2307205 17.692318
485 1 2 0.0 22.3791676 45.9999504 23.0000038
486 1 2 0.0 22.3791676 47.7691765 28.3076897
487 1 2 0.0 22.3791676 49.5384064 33.6153755
488 1 2 0.0 22.3791676 51.3076363 38.9230576
489 1 2 0.0 22.3791676 53.0768623 44.2307434
490 1 2 0.0 22.3791676 54.8460922 49.5384293
491 1 2 0.0 22.3791676 56.6153221 1.7692638
492 1 2 0.0 22.3791676 58.384552 7.0769486
493 1 2 0.0 22.3791676 60.1537781 12.384634
494 1 2 0.0 22.3791676 61.923008 17.692318
495 1 2 0.0 22.3791676 63.6922379 23.0000038
496 1 2 0.0 22.3791676 65.461464 28.3076897
497 1 2 0.0 22.3791676 67.2306976 33.6153755
498 1 2 0.0 22.3791676 68.9999238 38.9230576
499 1 2 0.0 22.3791676 70.7691498 44.2307434
500 1 2 0.0 22.3791676 72.5383835 49.5384293
501 1 2 0.0 2.797396 71.6537628 2.6538425
502 1 2 0.0 2.797396 73.4229965 7.9615274
503 1 2 0.0 2.797396 75.1922226 13.2692127
504 1 2 0.0 2.797396 76.9614564 18.5768967
505 1 2 0.0 2.797396 78.7306824 23.8845826
506 1 2 0.0 2.797396 80.4999085 29.1922684
507 1 2 0.0 2.797396 82.2691422 34.4999542
508 1 2 0.0 2.797396 84.0383682 39.8076363
509 1 2 0.0 2.797396 85.8075943 45.1153221
510 1 2 0.0 2.797396 87.576828 50.423008
511 1 2 0.0 2.797396 0.8846144 2.6538425
512 1 2 0.0 2.797396 2.6538432 7.9615274
513 1 2 0.0 2.797396 4.4230719 13.2692127
514 1 2 0.0 2.797396 6.1923008 18.5768967
515 1 2 0.0 2.797396 7.9615298 23.8845826
516 1 2 0.0 2.797396 9.7307587 29.1922684
517 1 2 0.0 2.797396 11.4999876 34.4999542
518 1 2 0.0 2.797396 13.2692156 39.8076363
519 1 2 0.0 2.797396 15.0384445 45.1153221
520 1 2 0.0 2.797396 16.8076744 50.423008
521 1 2 0.0 2.797396 18.5769024 2.6538425
522 1 2 0.0 2.797396 20.3461304 7.9615274
523 1 2 0.0 2.797396 22.1153603 13.2692127
524 1 2 0.0 2.797396 23.8845882 18.5768967
525 1 2 0.0 2.797396 25.6538182 23.8845826
526 1 2 0.0 2.797396 27.4230461 29.1922684
527 1 2 0.0 2.797396 29.192276 34.4999542
528 1 2 0.0 2.797396 30.961504 39.8076363
529 1 2 0.0 2.797396 32.730732 45.1153221
530 1 2 0.0 2.797396 34.4999619 50.423008
531 1 2 0.0 2.797396 36.2691918 2.6538425
532 1 2 0.0 2.797396 38.0384178 7.9615274
533 1 2 0.0 2.797396 39.8076477 13.2692127
534 1 2 0.0 2.797396 41.5768776 18.5768967
535 1 2 0.0 2.797396 43.3461075 23.8845826
536 1 2 0.0 2.797396 45.1153336 29.1922684
537 1 2 0.0 2.797396 46.8845634 34.4999542
538 1 2 0.0 2.797396 48.6537934 39.8076363
539 1 2 0.0 2.797396 50.4230194 45.1153221
540 1 2 0.0 2.797396 52.1922493 50.423008
541 1 2 0.0 2.797396 53.9614792 2.6538425
542 1 2 0.0 2.797396 55.7307091 7.9615274
543 1 2 0.0 2.797396 57.4999352 13.2692127
544 1 2 0.0 2.797396 59.2691651 18.5768967
545 1 2 0.0 2.797396 61.0383949 23.8845826
546 1 2 0.0 2.797396 62.807621 29.1922684
547 1 2 0.0 2.797396 64.5768509 34.4999542
548 1 2 0.0 2.797396 66.346077 39.8076363
549 1 2 0.0 2.797396 68.1153107 45.1153221
550 1 2 0.0 2.797396 69.8845368 50.423008
551 1 2 0.0 8.3921881 71.6537628 2.6538425
552 1 2 0.0 8.3921881 73.4229965 7.9615274
553 1 2 0.0 8.3921881 75.1922226 13.2692127
554 1 2 0.0 8.3921881 76.9614564 18.5768967
555 1 2 0.0 8.3921881 78.7306824 23.8845826
556 1 2 0.0 8.3921881 80.4999085 29.1922684
557 1 2 0.0 8.3921881 82.2691422 34.4999542
558 1 2 0.0 8.3921881 84.0383682 39.8076363
559 1 2 0.0 8.3921881 85.8075943 45.1153221
560 1 2 0.0 8.3921881 87.576828 50.423008
561 1 2 0.0 8.3921881 0.8846144 2.6538425
562 1 2 0.0 8.3921881 2.6538432 7.9615274
563 1 2 0.0 8.3921881 4.4230719 13.2692127
564 1 2 0.0 8.3921881 6.1923008 18.5768967
565 1 2 0.0 8.3921881 7.9615298 23.8845826
566 1 2 0.0 8.3921881 9.7307587 29.1922684
567 1 2 0.0 8.3921881 11.4999876 34.4999542
568 1 2 0.0 8.3921881 13.2692156 39.8076363
569 1 2 0.0 8.3921881 15.0384445 45.1153221
570 1 2 0.0 8.3921881 16.8076744 50.423008
571 1 2 0.0 8.3921881 18.5769024 2.6538425
572 1 2 0.0 8.3921881 20.3461304 7.9615274
573 1 2 0.0 8.3921881 22.1153603 13.2692127
574 1 2 0.0 8.3921881 23.8845882 18.5768967
575 1 2 0.0 8.3921881 25.6538182 23.8845826
576 1 2 0.0 8.3921881 27.4230461 29.1922684
577 1 2 0.0 8.3921881 29.192276 34.4999542
578 1 2 0.0 8.3921881 30.961504 39.8076363
579 1 2 0.0 8.3921881 32.730732 45.1153221
580 1 2 0.0 8.3921881 34.4999619 50.423008
581 1 2 0.0 8.3921881 36.2691918 2.6538425
582 1 2 0.0 8.3921881 38.0384178 7.9615274
583 1 2 0.0 8.3921881 39.8076477 13.2692127
584 1 2 0.0 8.3921881 41.5768776 18.5768967
585 1 2 0.0 8.3921881 43.3461075 23.8845826
586 1 2 0.0 8.3921881 45.1153336 29.1922684
587 1 2 0.0 8.3921881 46.8845634 34.4999542
588 1 2 0.0 8.3921881 48.6537934 39.8076363
589 1 2 0.0 8.3921881 50.4230194 45.1153221
590 1 2 0.0 8.3921881 52.1922493 50.423008
591 1 2 0.0 8.3921881 53.9614792 2.6538425
592 1 2 0.0 8.3921881 55.7307091 7.9615274
593 1 2 0.0 8.3921881 57.4999352 13.2692127
594 1 2 0.0 8.3921881 59.2691651 18.5768967
595 1 2 0.0 8.3921881 61.0383949 23.8845826
596 1 2 0.0 8.3921881 62.807621 29.1922684
597 1 2 0.0 8.3921881 64.5768509 34.4999542
598 1 2 0.0 8.3921881 66.346077 39.8076363
599 1 2 0.0 8.3921881 68.1153107 45.1153221
600 1 2 0.0 8.3921881 69.8845368 50.423008
601 1 2 0.0 13.9869804 71.6537628 2.6538425
602 1 2 0.0 13.9869804 73.4229965 7.9615274
603 1 2 0.0 13.9869804 75.1922226 13.2692127
604 1 2 0.0 13.9869804 76.9614564 18.5768967
605 1 2 0.0 13.9869804 78.7306824 23.8845826
606 1 2 0.0 13.9869804 80.4999085 29.1922684
607 1 2 0.0 13.9869804 82.2691422 34.4999542
608 1 2 0.0 13.9869804 84.0383682 39.8076363
609 1 2 0.0 13.9869804 85.8075943 45.1153221
610 1 2 0.0 13.9869804 87.576828 50.423008
611 1 2 0.0 13.9869804 0.8846144 2.6538425
612 1 2 0.0 13.9869804 2.6538432 7.9615274
613 1 2 0.0 13.9869804 4.4230719 13.2692127
614 1 2 0.0 13.9869804 6.1923008 18.5768967
615 1 2 0.0 13.9869804 7.9615298 23.8845826
616 1 2 0.0 13.9869804 9.7307587 29.1922684
617 1 2 0.0 13.9869804 11.4999876 34.4999542
618 1 2 0.0 13.9869804 13.2692156 39.8076363
619 1 2 0.0 13.9869804 15.0384445 45.1153221
620 1 2 0.0 13.9869804 16.8076744 50.423008
621 1 2 0.0 13.9869804 18.5769024 2.6538425
622 1 2 0.0 13.9869804 20.3461304 7.9615274
623 1 2 0.0 13.9869804 22.1153603 13.2692127
624 1 2 0.0 13.9869804 23.8845882 18.5768967
625 1 2 0.0 13.9869804 25.6538182 23.8845826
626 1 2 0.0 13.9869804 27.4230461 29.1922684
627 1 2 0.0 13.9869804 29.192276 34.4999542
628 1 2 0.0 13.9869804 30.961504 39.8076363
629 1 2 0.0 13.9869804 32.730732 45.1153221
630 1 2 0.0 13.9869804 34.4999619 50.423008
631 1 2 0.0 13.9869804 36.2691918 2.6538425
632 1 2 0.0 13.9869804 38.0384178 7.9615274
633 1 2 0.0 13.9869804 39.8076477 13.2692127
634 1 2 0.0 13.9869804 41.5768776 18.5768967
635 1 2 0.0 13.9869804 43.3461075 23.8845826
636 1 2 0.0 13.9869804 45.1153336 29.1922684
637 1 2 0.0 13.9869804 46.8845634 34.4999542
638 1 2 0.0 13.9869804 48.6537934 39.8076363
639 1 2 0.0 13.9869804 50.4230194 45.1153221
640 1 2 0.0 13.9869804 52.1922493 50.423008
641 1 2 0.0 13.9869804 53.9614792 2.6538425
642 1 2 0.0 13.9869804 55.7307091 7.9615274
643 1 2 0.0 13.9869804 57.4999352 13.2692127
644 1 2 0.0 13.9869804 59.2691651 18.5768967
645 1 2 0.0 13.9869804 61.0383949 23.8845826
646 1 2 0.0 13.9869804 62.807621 29.1922684
647 1 2 0.0 13.9869804 64.5768509 34.4999542
648 1 2 0.0 13.9869804 66.346077 39.8076363
649 1 2 0.0 13.9869804 68.1153107 45.1153221
650 1 2 0.0 13.9869804 69.8845368 50.423008
651 1 2 0.0 19.5817719 71.6537628 2.6538425
652 1 2 0.0 19.5817719 73.4229965 7.9615274
653 1 2 0.0 19.5817719 75.1922226 13.2692127
654 1 2 0.0 19.5817719 76.9614564 18.5768967
655 1 2 0.0 19.5817719 78.7306824 23.8845826
656 1 2 0.0 19.5817719 80.4999085 29.1922684
657 1 2 0.0 19.5817719 82.2691422 34.4999542
658 1 2 0.0 19.5817719 84.0383682 39.8076363
659 1 2 0.0 19.5817719 85.8075943 45.1153221
660 1 2 0.0 19.5817719 87.576828 50.423008
661 1 2 0.0 19.5817719 0.8846144 2.6538425
662 1 2 0.0 19.5817719 2.6538432 7.9615274
663 1 2 0.0 19.5817719 4.4230719 13.2692127
664 1 2 0.0 19.5817719 6.1923008 18.5768967
665 1 2 0.0 19.5817719 7.9615298 23.8845826
666 1 2 0.0 19.5817719 9.7307587 29.1922684
667 1 2 0.0 19.5817719 11.4999876 34.4999542
668 1 2 0.0 19.5817719 13.2692156 39.8076363
669 1 2 0.0 19.5817719 15.0384445 45.1153221
670 1 2 0.0 19.5817719 16.8076744 50.423008
671 1 2 0.0 19.5817719 18.5769024 2.6538425
672 1 2 0.0 19.5817719 20.3461304 7.9615274
673 1 2 0.0 19.5817719 22.1153603 13.2692127
674 1 2 0.0 19.5817719 23.8845882 18.5768967
675 1 2 0.0 19.5817719 25.6538182 23.8845826
676 1 2 0.0 19.5817719 27.4230461 29.1922684
677 1 2 0.0 19.5817719 29.192276 34.4999542
678 1 2 0.0 19.5817719 30.961504 39.8076363
679 1 2 0.0 19.5817719 32.730732 45.1153221
680 1 2 0.0 19.5817719 34.4999619 50.423008